ITEM: TIMESTEP
0
ITEM: NUMBER OF ATOMS
32000
ITEM: BOX BOUNDS pp pp pp
0.0000000000000000e+00 7.2299999999999997e+01
0.0000000000000000e+00 7.2299999999999997e+01
0.0000000000000000e+00 7.2299999999999997e+01
ITEM: ATOMS id type fx fy fz c_pte
1 1 0.561741 0.0728578 1.20897 -4.05427
2 2 -0.815013 -0.295579 1.14782 -7.24991
3 1 -0.64325 -0.43125 0.134108 -3.91684
4 1 -0.659219 0.00538319 0.156167 -3.91952
5 2 1.75577 -0.924599 0.757714 -7.25353
6 2 -0.26509 -3.37127 1.02567 -7.06444
7 1 -0.149086 -1.25707 0.411887 -3.96704
8 1 0.403953 -0.220924 0.214138 -3.77667
9 1 -0.657033 -0.165596 0.965553 -3.93144
10 1 -0.040728 -1.0086 -0.31049 -4.00756
11 1 1.12683 -1.64566 -0.0807246 -3.95478
12 1 -1.12659 1.08293 -0.556017 -3.90755
13 1 -0.881606 0.334369 -0.329367 -4.04979
14 2 -2.33573 -1.03367 -1.4127 -6.2922
15 2 -3.21757 -1.01287 0.185078 -6.90148
16 2 0.0431919 -0.0295282 0.089291 -6.2922
17 2 2.65389 -1.32761 -1.3292 -6.28417
18 2 3.46973 0.90758 -0.039977 -6.84218
19 2 2.45689 0.0816002 2.38001 -6.52143
20 2 2.53652 -0.229388 1.9952 -7.01769
21 2 1.0054 -0.965291 -1.5616 -7.32317
23 1 0.301935 0.769188 0.510565 -3.80529
22 1 -0.259971 -0.0964326 0.130055 -3.75646
24 2 -0.232884 -0.119174 -0.0588696 -7.30224
25 1 -0.328475 0.866494 0.385676 -3.84569
27 1 0.257967 0.29183 -0.0067663 -3.65537
26 1 -0.256211 -1.3968 0.915503 -3.839
28 1 -0.355807 0.572799 -0.537021 -3.84205
29 1 -0.0264841 -0.494828 0.679332 -3.79516
31 1 -1.1824 -0.288781 -0.242717 -3.83141
30 2 1.08928 -2.87173 1.96257 -7.17851
32 1 0.0580186 -0.160835 -1.16284 -3.80227
33 1 0.220168 -0.45835 0.388619 -3.79518
35 1 1.51627 -0.101388 -0.397103 -3.83903
34 1 -0.891665 0.514068 0.478488 -3.88328
36 1 -0.636024 0.180838 0.496464 -3.83741
37 2 -3.32651 1.19972 0.352199 -6.49938
39 2 -1.73247 0.836552 0.93619 -7.22777
38 2 1.85585 2.17208 2.35117 -6.89075
40 2 2.59501 0.170502 2.98739 -7.13229
4001 1 0.561741 0.0728578 1.20897 -4.05427
4002 2 -0.815013 -0.295579 1.14782 -7.24991
4003 1 -0.64325 -0.43125 0.134108 -3.91684
4004 1 -0.659219 0.00538319 0.156167 -3.91952
4005 2 1.75577 -0.924599 0.757714 -7.25353
4006 2 -0.26509 -3.37127 1.02567 -7.06444
4007 1 -0.149086 -1.25707 0.411887 -3.96704
4008 1 0.403953 -0.220924 0.214138 -3.77667
4009 1 -0.657033 -0.165596 0.965553 -3.93144
4010 1 -0.040728 -1.0086 -0.31049 -4.00756
4011 1 1.12683 -1.64566 -0.0807246 -3.95478
4012 1 -1.12659 1.08293 -0.556017 -3.90755
4013 1 -0.881606 0.334369 -0.329367 -4.04979
4014 2 -2.33573 -1.03367 -1.4127 -6.2922
4015 2 -3.21757 -1.01287 0.185078 -6.90148
4016 2 0.0431919 -0.0295282 0.089291 -6.2922
4017 2 2.65389 -1.32761 -1.3292 -6.28417
4018 2 3.46973 0.90758 -0.039977 -6.84218
4019 2 2.45689 0.0816002 2.38001 -6.52143
4020 2 2.53652 -0.229388 1.9952 -7.01769
4021 2 1.0054 -0.965291 -1.5616 -7.32317
4023 1 0.301935 0.769188 0.510565 -3.80529
4022 1 -0.259971 -0.0964326 0.130055 -3.75646
4024 2 -0.232884 -0.119174 -0.0588696 -7.30224
4025 1 -0.328475 0.866494 0.385676 -3.84569
4027 1 0.257967 0.29183 -0.0067663 -3.65537
4026 1 -0.256211 -1.3968 0.915503 -3.839
4028 1 -0.355807 0.572799 -0.537021 -3.84205
4029 1 -0.0264841 -0.494828 0.679332 -3.79516
4031 1 -1.1824 -0.288781 -0.242717 -3.83141
4030 2 1.08928 -2.87173 1.96257 -7.17851
4032 1 0.0580186 -0.160835 -1.16284 -3.80227
4033 1 0.220168 -0.45835 0.388619 -3.79518
4035 1 1.51627 -0.101388 -0.397103 -3.83903
4034 1 -0.891665 0.514068 0.478488 -3.88328
4036 1 -0.636024 0.180838 0.496464 -3.83741
4037 2 -3.32651 1.19972 0.352199 -6.49938
4039 2 -1.73247 0.836552 0.93619 -7.22777
4038 2 1.85585 2.17208 2.35117 -6.89075
4040 2 2.59501 0.170502 2.98739 -7.13229
41 1 0.190754 -0.0616961 0.96959 -4.0031
42 2 -3.56861 -1.2375 0.169466 -6.73424
43 1 0.12036 -0.449868 -0.625597 -3.95645
44 2 -2.30487 -0.345146 0.280284 -6.86075
45 2 -1.28355 -2.75358 -1.07578 -6.52944
46 2 2.51801 1.14613 -1.14129 -6.29983
47 2 -1.40798 0.0970947 1.38177 -6.03644
48 2 0.100396 -2.59316 0.0508959 -6.30283
49 2 2.24924 -1.30207 -1.16911 -6.7235
50 2 -2.0596 1.1586 -1.16099 -6.70364
51 2 1.31438 3.30101 -0.000117772 -6.48397
52 2 0.0339225 -3.29125 1.02737 -6.70509
53 2 -1.15736 -0.881246 -2.39537 -6.70511
54 1 0.315698 0.548093 -0.832559 -4.14557
55 2 -0.165773 -0.101969 -0.14832 -6.54067
56 2 -1.03631 1.05494 0.0744463 -6.29119
57 2 1.33805 3.45556 -0.1933 -6.72778
58 1 1.01089 -0.00726018 -0.369697 -3.84335
59 2 3.23482 0.160753 -1.00139 -6.88571
60 1 1.29909 0.174361 -0.121785 -3.92879
61 1 0.491257 0.448948 0.817252 -3.93455
63 1 -0.584171 -0.419741 -0.754533 -3.74747
62 1 -0.276149 0.743281 0.867387 -3.89526
64 1 -0.086972 -0.699989 -0.552885 -3.7567
65 2 -1.02729 -1.87898 2.54379 -7.2356
67 1 -0.217513 -0.142373 -0.651226 -3.83442
66 2 -1.22117 2.23279 3.2286 -6.91472
68 1 -0.338859 -1.28955 0.880683 -3.88443
69 2 -2.13369 -2.35419 2.39779 -6.49557
71 2 -0.975017 2.04131 1.18923 -7.03361
70 2 2.17325 1.05021 1.38756 -6.94927
72 2 1.95601 -1.09566 1.10801 -7.01769
73 1 1.19854 0.169811 0.238601 -3.92875
75 1 0.22557 -0.711141 0.374215 -3.91948
74 2 0.917993 -2.51366 -0.0468732 -7.30573
76 1 -0.961081 0.250711 0.265223 -3.78307
77 1 -0.980965 0.154409 0.762607 -3.88782
79 1 -0.44086 -1.04453 -0.504847 -3.91955
78 2 -1.09314 -1.00006 2.02284 -7.35214
80 1 0.539769 -0.0127309 -0.315062 -4.01949
4041 1 0.190754 -0.0616961 0.96959 -4.0031
4042 2 -3.56861 -1.2375 0.169466 -6.73424
4043 1 0.12036 -0.449868 -0.625597 -3.95645
4044 2 -2.30487 -0.345146 0.280284 -6.86075
4045 2 -1.28355 -2.75358 -1.07578 -6.52944
4046 2 2.51801 1.14613 -1.14129 -6.29983
4047 2 -1.40798 0.0970947 1.38177 -6.03644
4048 2 0.100396 -2.59316 0.0508959 -6.30283
4049 2 2.24924 -1.30207 -1.16911 -6.7235
4050 2 -2.0596 1.1586 -1.16099 -6.70364
4051 2 1.31438 3.30101 -0.000117772 -6.48397
4052 2 0.0339225 -3.29125 1.02737 -6.70509
4053 2 -1.15736 -0.881246 -2.39537 -6.70511
4054 1 0.315698 0.548093 -0.832559 -4.14557
4055 2 -0.165773 -0.101969 -0.14832 -6.54067
4056 2 -1.03631 1.05494 0.0744463 -6.29119
4057 2 1.33805 3.45556 -0.1933 -6.72778
4058 1 1.01089 -0.00726018 -0.369697 -3.84335
4059 2 3.23482 0.160753 -1.00139 -6.88571
4060 1 1.29909 0.174361 -0.121785 -3.92879
4061 1 0.491257 0.448948 0.817252 -3.93455
4063 1 -0.584171 -0.419741 -0.754533 -3.74747
4062 1 -0.276149 0.743281 0.867387 -3.89526
4064 1 -0.086972 -0.699989 -0.552885 -3.7567
4065 2 -1.02729 -1.87898 2.54379 -7.2356
4067 1 -0.217513 -0.142373 -0.651226 -3.83442
4066 2 -1.22117 2.23279 3.2286 -6.91472
4068 1 -0.338859 -1.28955 0.880683 -3.88443
4069 2 -2.13369 -2.35419 2.39779 -6.49557
4071 2 -0.975017 2.04131 1.18923 -7.03361
4070 2 2.17325 1.05021 1.38756 -6.94927
4072 2 1.95601 -1.09566 1.10801 -7.01769
4073 1 1.19854 0.169811 0.238601 -3.92875
4075 1 0.22557 -0.711141 0.374215 -3.91948
4074 2 0.917993 -2.51366 -0.0468732 -7.30573
4076 1 -0.961081 0.250711 0.265223 -3.78307
4077 1 -0.980965 0.154409 0.762607 -3.88782
4079 1 -0.44086 -1.04453 -0.504847 -3.91955
4078 2 -1.09314 -1.00006 2.02284 -7.35214
4080 1 0.539769 -0.0127309 -0.315062 -4.01949
81 1 0.121059 0.282516 1.05704 -4.14259
82 2 -1.17758 0.677129 1.31048 -6.72635
83 1 -0.718754 0.555458 0.819629 -3.96037
84 2 -2.32537 1.17965 1.32268 -7.10511
85 2 0.000327473 1.57284 1.16732 -6.04786
86 2 2.18653 2.4407 2.08755 -7.09623
87 1 0.104627 0.798211 0.757167 -4.01364
88 2 2.14263 2.66907 0.310474 -6.70364
89 1 0.501473 -0.0138914 0.0710039 -4.09488
90 2 -1.9923 1.27006 0.833013 -7.26037
91 1 0.57967 0.322115 0.0674161 -3.91356
92 1 -1.39613 0.287364 -0.0736737 -4.12967
93 2 1.12573 0.196277 -1.38122 -6.74263
94 2 1.23037 1.35333 -2.26746 -7.07207
95 2 -1.25265 1.33187 -0.262253 -6.49043
96 2 1.63311 0.0569839 -1.46981 -6.25696
97 2 2.04146 0.170269 -1.71676 -7.40649
98 1 0.158885 0.230659 0.119101 -3.89828
99 1 0.785612 0.430501 -0.517997 -4.0121
100 1 0.325884 0.0233645 -0.567463 -3.835
101 2 -0.789084 -0.148537 0.224343 -7.34996
103 1 -0.35996 0.000834135 -0.604653 -3.84978
102 2 1.1977 -0.0863944 0.109548 -7.31198
104 1 0.186986 -0.427064 -0.731058 -3.84095
105 1 -1.26073 -0.0702719 1.05909 -3.88147
107 1 -0.173397 -0.311587 -0.762926 -3.92846
106 2 -0.956847 -0.807844 0.0439802 -7.30401
108 1 -0.410209 0.3335 -0.470552 -3.96625
109 1 0.157149 0.325892 0.504464 -4.00478
111 2 0.836333 -1.79998 0.90228 -7.15617
110 2 -1.27135 0.151296 -1.08207 -7.08877
112 1 -0.226829 -0.0189798 0.409286 -4.09934
113 2 -0.829013 -1.33398 -0.167896 -6.68758
115 2 -2.46445 0.0376461 -0.0197718 -6.50314
114 2 0.10374 1.09568 -1.30783 -6.74262
116 2 1.17502 -3.48543 -0.246371 -6.72777
117 1 -0.293004 -1.03623 0.0341478 -4.105
119 2 2.31098 1.12059 -1.11574 -6.6861
118 2 0.101373 1.02172 1.01893 -7.06447
120 2 1.0715 -0.15834 -1.00018 -7.06635
4081 1 0.121059 0.282516 1.05704 -4.14259
4082 2 -1.17758 0.677129 1.31048 -6.72635
4083 1 -0.718754 0.555458 0.819629 -3.96037
4084 2 -2.32537 1.17965 1.32268 -7.10511
4085 2 0.000327473 1.57284 1.16732 -6.04786
4086 2 2.18653 2.4407 2.08755 -7.09623
4087 1 0.104627 0.798211 0.757167 -4.01364
4088 2 2.14263 2.66907 0.310474 -6.70364
4089 1 0.501473 -0.0138914 0.0710039 -4.09488
4090 2 -1.9923 1.27006 0.833013 -7.26037
4091 1 0.57967 0.322115 0.0674161 -3.91356
4092 1 -1.39613 0.287364 -0.0736737 -4.12967
4093 2 1.12573 0.196277 -1.38122 -6.74263
4094 2 1.23037 1.35333 -2.26746 -7.07207
4095 2 -1.25265 1.33187 -0.262253 -6.49043
4096 2 1.63311 0.0569839 -1.46981 -6.25696
4097 2 2.04146 0.170269 -1.71676 -7.40649
4098 1 0.158885 0.230659 0.119101 -3.89828
4099 1 0.785612 0.430501 -0.517997 -4.0121
4100 1 0.325884 0.0233645 -0.567463 -3.835
4101 2 -0.789084 -0.148537 0.224343 -7.34996
4103 1 -0.35996 0.000834135 -0.604653 -3.84978
4102 2 1.1977 -0.0863944 0.109548 -7.31198
4104 1 0.186986 -0.427064 -0.731058 -3.84095
4105 1 -1.26073 -0.0702719 1.05909 -3.88147
4107 1 -0.173397 -0.311587 -0.762926 -3.92846
4106 2 -0.956847 -0.807844 0.0439802 -7.30401
4108 1 -0.410209 0.3335 -0.470552 -3.96625
4109 1 0.157149 0.325892 0.504464 -4.00478
4111 2 0.836333 -1.79998 0.90228 -7.15617
4110 2 -1.27135 0.151296 -1.08207 -7.08877
4112 1 -0.226829 -0.0189798 0.409286 -4.09934
4113 2 -0.829013 -1.33398 -0.167896 -6.68758
4115 2 -2.46445 0.0376461 -0.0197718 -6.50314
4114 2 0.10374 1.09568 -1.30783 -6.74262
4116 2 1.17502 -3.48543 -0.246371 -6.72777
4117 1 -0.293004 -1.03623 0.0341478 -4.105
4119 2 2.31098 1.12059 -1.11574 -6.6861
4118 2 0.101373 1.02172 1.01893 -7.06447
4120 2 1.0715 -0.15834 -1.00018 -7.06635
121 2 -1.46256 2.18669 -0.0108021 -7.14145
122 2 0.197234 2.16522 -0.534113 -7.32903
123 1 -0.702558 0.255098 -0.0892862 -3.84394
124 2 -0.0737388 -0.51777 2.8776 -7.14143
125 2 0.756698 1.37492 0.0943564 -7.02168
126 2 -0.108191 -0.763523 -0.82859 -7.4149
127 1 0.410075 0.709666 0.801514 -3.84992
128 1 0.148411 0.50292 0.890095 -3.83603
129 1 -0.0261737 0.779935 0.42237 -3.88444
130 2 -0.907774 -2.90942 -0.0668612 -7.20793
131 1 -0.206365 -1.20906 1.50486 -3.7903
132 1 -1.35165 1.16918 0.578558 -3.87291
133 2 0.174149 1.13876 -0.898282 -7.19926
134 2 0.215274 0.585333 -0.902697 -7.3666
135 1 0.285797 -0.413204 0.391803 -4.00914
136 1 0.1788 -0.0261386 0.15132 -4.05562
137 2 0.967594 -1.69821 -0.679225 -7.309
138 2 -0.222619 -0.393002 0.0702528 -7.14143
139 2 0.823766 1.74665 0.722674 -7.09616
140 1 0.48687 -0.369997 -0.0578705 -3.83785
141 2 -0.0766015 -0.373002 0.204821 -7.40768
143 1 -0.193169 -0.201856 0.650601 -3.93178
142 1 0.207791 -1.17685 0.131755 -3.89343
144 1 0.547504 1.03833 -0.602847 -3.83442
145 1 -1.1143 0.356375 0.540681 -3.84938
147 1 -0.343202 0.517232 -0.84388 -3.79472
146 1 0.134222 0.508193 1.02329 -3.84802
148 2 0.164587 1.75181 -2.0894 -7.13918
149 1 -0.579013 0.392239 0.0151627 -3.9294
151 1 -0.497047 0.618019 -0.444885 -3.88443
150 2 0.1138 0.791625 2.77206 -7.20143
152 2 -1.27887 1.03643 -0.300518 -7.03552
153 1 -0.0395475 -0.107382 0.18394 -4.0467
155 1 -0.494847 0.247226 -0.997775 -4.05729
154 2 0.739291 0.89208 -0.133477 -7.29649
156 2 0.133102 2.46042 -2.3572 -6.72493
157 1 1.57553 1.427 0.195391 -3.92248
159 1 1.32173 -0.614203 -0.999775 -3.87869
158 1 -0.325226 -0.487789 -0.11437 -3.78913
160 1 0.485496 0.909019 0.65691 -3.92141
4121 2 -1.46256 2.18669 -0.0108021 -7.14145
4122 2 0.197234 2.16522 -0.534113 -7.32903
4123 1 -0.702558 0.255098 -0.0892862 -3.84394
4124 2 -0.0737388 -0.51777 2.8776 -7.14143
4125 2 0.756698 1.37492 0.0943564 -7.02168
4126 2 -0.108191 -0.763523 -0.82859 -7.4149
4127 1 0.410075 0.709666 0.801514 -3.84992
4128 1 0.148411 0.50292 0.890095 -3.83603
4129 1 -0.0261737 0.779935 0.42237 -3.88444
4130 2 -0.907774 -2.90942 -0.0668612 -7.20793
4131 1 -0.206365 -1.20906 1.50486 -3.7903
4132 1 -1.35165 1.16918 0.578558 -3.87291
4133 2 0.174149 1.13876 -0.898282 -7.19926
4134 2 0.215274 0.585333 -0.902697 -7.3666
4135 1 0.285797 -0.413204 0.391803 -4.00914
4136 1 0.1788 -0.0261386 0.15132 -4.05562
4137 2 0.967594 -1.69821 -0.679225 -7.309
4138 2 -0.222619 -0.393002 0.0702528 -7.14143
4139 2 0.823766 1.74665 0.722674 -7.09616
4140 1 0.48687 -0.369997 -0.0578705 -3.83785
4141 2 -0.0766015 -0.373002 0.204821 -7.40768
4143 1 -0.193169 -0.201856 0.650601 -3.93178
4142 1 0.207791 -1.17685 0.131755 -3.89343
4144 1 0.547504 1.03833 -0.602847 -3.83442
4145 1 -1.1143 0.356375 0.540681 -3.84938
4147 1 -0.343202 0.517232 -0.84388 -3.79472
4146 1 0.134222 0.508193 1.02329 -3.84802
4148 2 0.164587 1.75181 -2.0894 -7.13918
4149 1 -0.579013 0.392239 0.0151627 -3.9294
4151 1 -0.497047 0.618019 -0.444885 -3.88443
4150 2 0.1138 0.791625 2.77206 -7.20143
4152 2 -1.27887 1.03643 -0.300518 -7.03552
4153 1 -0.0395475 -0.107382 0.18394 -4.0467
4155 1 -0.494847 0.247226 -0.997775 -4.05729
4154 2 0.739291 0.89208 -0.133477 -7.29649
4156 2 0.133102 2.46042 -2.3572 -6.72493
4157 1 1.57553 1.427 0.195391 -3.92248
4159 1 1.32173 -0.614203 -0.999775 -3.87869
4158 1 -0.325226 -0.487789 -0.11437 -3.78913
4160 1 0.485496 0.909019 0.65691 -3.92141
161 1 0.296471 -0.126309 -0.342604 -3.85398
162 1 0.255864 -1.63704 -1.09619 -3.88147
163 2 0.0685949 -1.08471 -3.059 -6.86775
164 1 0.419093 -0.614656 -0.808886 -3.98165
165 1 -0.512143 -0.133569 -1.10884 -3.94343
166 2 -0.0231163 -1.24342 -0.739143 -7.04336
167 2 0.0976842 -1.93319 0.105116 -7.01773
168 2 0.0903414 -1.03788 2.43614 -7.19082
169 2 -1.20986 -0.242369 -0.992725 -6.89916
170 2 -1.1505 0.826042 0.0245886 -6.74264
171 1 -0.583409 0.349418 1.02438 -3.96246
172 2 -2.20147 -2.18533 1.9928 -6.86602
173 2 1.86956 -1.43827 -1.24094 -6.93467
174 2 0.307397 -2.14316 -2.05971 -6.90978
175 2 0.106481 -0.192801 0.253373 -6.26032
176 1 0.273476 -0.321253 0.112579 -4.0107
177 1 -0.447418 -0.619488 -0.320925 -4.11417
178 2 -1.29551 -1.09076 -0.0144073 -6.51062
179 2 0.98085 -3.02502 1.91108 -7.06262
180 1 -0.0933354 -0.237564 0.958648 -4.01308
181 2 1.24656 -2.25999 1.27777 -6.91804
183 2 1.12893 0.763972 2.08409 -7.04919
182 1 1.52698 0.9264 -0.166667 -3.92882
184 2 2.46394 -0.76933 0.0754943 -7.27871
185 1 0.519059 0.364465 0.454796 -3.70902
187 1 -0.253855 -0.179801 -0.185019 -3.79515
186 1 -0.744231 -0.82254 0.0240982 -3.65533
188 1 -0.343562 0.386539 -0.19746 -3.7344
189 1 -0.875223 0.814294 0.97727 -3.79481
191 1 -0.0729439 -0.925114 -0.863835 -3.79474
190 1 0.772683 -0.224745 0.768213 -3.79516
192 1 -0.236774 0.199416 -0.905173 -3.88024
193 1 0.103791 1.34852 0.696232 -3.79326
195 1 -0.431492 0.477804 -1.76994 -3.74311
194 1 -0.467295 -0.0331972 -0.156155 -3.73732
196 2 0.200313 0.739196 -3.03024 -7.16962
197 1 0.117801 0.665257 -0.517386 -3.84801
199 1 0.201845 0.672072 -1.16705 -3.96635
198 1 -0.408692 -0.374448 0.103085 -3.88486
200 2 -0.949192 -1.89495 -2.9622 -7.26126
4161 1 0.296471 -0.126309 -0.342604 -3.85398
4162 1 0.255864 -1.63704 -1.09619 -3.88147
4163 2 0.0685949 -1.08471 -3.059 -6.86775
4164 1 0.419093 -0.614656 -0.808886 -3.98165
4165 1 -0.512143 -0.133569 -1.10884 -3.94343
4166 2 -0.0231163 -1.24342 -0.739143 -7.04336
4167 2 0.0976842 -1.93319 0.105116 -7.01773
4168 2 0.0903414 -1.03788 2.43614 -7.19082
4169 2 -1.20986 -0.242369 -0.992725 -6.89916
4170 2 -1.1505 0.826042 0.0245886 -6.74264
4171 1 -0.583409 0.349418 1.02438 -3.96246
4172 2 -2.20147 -2.18533 1.9928 -6.86602
4173 2 1.86956 -1.43827 -1.24094 -6.93467
4174 2 0.307397 -2.14316 -2.05971 -6.90978
4175 2 0.106481 -0.192801 0.253373 -6.26032
4176 1 0.273476 -0.321253 0.112579 -4.0107
4177 1 -0.447418 -0.619488 -0.320925 -4.11417
4178 2 -1.29551 -1.09076 -0.0144073 -6.51062
4179 2 0.98085 -3.02502 1.91108 -7.06262
4180 1 -0.0933354 -0.237564 0.958648 -4.01308
4181 2 1.24656 -2.25999 1.27777 -6.91804
4183 2 1.12893 0.763972 2.08409 -7.04919
4182 1 1.52698 0.9264 -0.166667 -3.92882
4184 2 2.46394 -0.76933 0.0754943 -7.27871
4185 1 0.519059 0.364465 0.454796 -3.70902
4187 1 -0.253855 -0.179801 -0.185019 -3.79515
4186 1 -0.744231 -0.82254 0.0240982 -3.65533
4188 1 -0.343562 0.386539 -0.19746 -3.7344
4189 1 -0.875223 0.814294 0.97727 -3.79481
4191 1 -0.0729439 -0.925114 -0.863835 -3.79474
4190 1 0.772683 -0.224745 0.768213 -3.79516
4192 1 -0.236774 0.199416 -0.905173 -3.88024
4193 1 0.103791 1.34852 0.696232 -3.79326
4195 1 -0.431492 0.477804 -1.76994 -3.74311
4194 1 -0.467295 -0.0331972 -0.156155 -3.73732
4196 2 0.200313 0.739196 -3.03024 -7.16962
4197 1 0.117801 0.665257 -0.517386 -3.84801
4199 1 0.201845 0.672072 -1.16705 -3.96635
4198 1 -0.408692 -0.374448 0.103085 -3.88486
4200 2 -0.949192 -1.89495 -2.9622 -7.26126
201 2 0.822326 -0.955674 -2.06267 -7.1971
204 2 0.12645 1.15813 -0.998798 -6.48508
205 2 -1.82383 -0.822845 -0.996132 -6.89752
208 1 0.520082 -0.227276 0.965855 -4.07058
209 2 -0.214456 -1.02465 3.09297 -6.93307
212 1 -0.337796 0.673534 0.563457 -4.05571
213 2 1.05802 1.16574 -0.138006 -6.95243
216 2 1.34728 3.18459 0.283821 -6.69208
217 2 -1.04301 2.89216 -2.06701 -6.86943
220 2 -1.05717 1.03689 4.11529 -6.84748
221 2 1.96711 -0.922478 -0.923015 -6.71242
224 1 0.538931 -0.901177 0.578048 -3.97567
225 1 0.114347 -1.05177 -0.374019 -3.92448
228 2 -0.942809 -1.78642 -0.875855 -7.14145
229 2 0.771827 -0.897263 0.0129245 -7.23038
232 1 0.527181 -0.338164 -1.07118 -3.93175
233 1 -0.371334 -0.61402 0.654206 -3.77916
236 1 -0.818158 -0.71002 -0.507814 -3.83788
237 2 -0.851976 -3.70512 1.00972 -7.16959
240 1 -0.174374 -0.36496 -0.137428 -4.15338
4201 2 0.822326 -0.955674 -2.06267 -7.1971
4204 2 0.12645 1.15813 -0.998798 -6.48508
4205 2 -1.82383 -0.822845 -0.996132 -6.89752
4208 1 0.520082 -0.227276 0.965855 -4.07058
4209 2 -0.214456 -1.02465 3.09297 -6.93307
4212 1 -0.337796 0.673534 0.563457 -4.05571
4213 2 1.05802 1.16574 -0.138006 -6.95243
4216 2 1.34728 3.18459 0.283821 -6.69208
4217 2 -1.04301 2.89216 -2.06701 -6.86943
4220 2 -1.05717 1.03689 4.11529 -6.84748
4221 2 1.96711 -0.922478 -0.923015 -6.71242
4224 1 0.538931 -0.901177 0.578048 -3.97567
4225 1 0.114347 -1.05177 -0.374019 -3.92448
4228 2 -0.942809 -1.78642 -0.875855 -7.14145
4229 2 0.771827 -0.897263 0.0129245 -7.23038
4232 1 0.527181 -0.338164 -1.07118 -3.93175
4233 1 -0.371334 -0.61402 0.654206 -3.77916
4236 1 -0.818158 -0.71002 -0.507814 -3.83788
4237 2 -0.851976 -3.70512 1.00972 -7.16959
4240 1 -0.174374 -0.36496 -0.137428 -4.15338
202 1 -0.331587 0.741196 -0.913867 -4.01505
203 2 -0.0130485 1.13371 1.02725 -7.09254
241 1 -0.397542 -0.676179 -1.1465 -3.96536
244 2 0.856426 -0.917696 0.0705789 -7.19712
206 2 0.805517 2.7738 1.90662 -7.0197
207 2 0.831472 1.81914 0.786158 -7.16738
245 1 0.894556 0.263693 0.413169 -3.92844
248 1 0.163504 0.54137 0.402255 -3.74453
210 2 -1.10976 1.03511 4.15694 -6.86945
211 1 -0.329536 0.916769 0.895819 -3.82402
249 1 -0.192092 1.01626 0.721952 -3.836
252 1 -0.465049 0.410707 0.513099 -3.78311
214 1 0.885214 0.464787 0.776346 -4.01059
215 1 -0.382476 0.761987 0.470732 -3.91688
253 2 0.0257736 0.0335874 4.00862 -7.04722
256 1 0.115343 -0.266863 -0.0895552 -3.78567
218 2 -2.86881 1.08209 0.0340404 -6.8908
219 1 0.280359 0.747772 0.23456 -3.88184
257 1 -0.35696 -1.03428 1.3603 -4.02247
260 1 -0.251394 0.492839 0.747671 -3.93452
223 2 0.0927025 -0.142075 3.9227 -7.05114
261 2 -0.122305 2.07902 -0.0720677 -6.71388
222 2 0.989746 -1.96208 -1.03238 -6.69207
227 2 0.122714 -1.0316 1.17465 -7.1018
264 2 -0.793777 1.11482 4.07361 -6.85101
265 2 2.0561 0.0151955 -1.97183 -6.71094
226 1 -0.606713 -0.580326 -1.1238 -4.01664
231 2 -0.385976 -0.126841 -0.347786 -6.91308
268 2 -0.0940041 -0.0508417 1.95732 -7.03752
269 2 -1.08897 -0.223958 -3.06402 -7.08509
230 1 1.08695 -0.755037 -0.153143 -4.01899
235 1 0.488202 -0.688643 -0.556923 -4.01055
272 2 -0.189539 -0.934051 0.999255 -6.70804
273 2 0.0178113 -1.20334 0.912037 -6.86251
234 2 -0.929502 -1.16597 1.79694 -7.0157
239 2 -0.810073 0.0702699 0.816387 -7.04332
276 1 0.0819215 -0.200711 -0.481974 -4.09646
277 1 -0.230531 0.661408 0.00645546 -4.0587
238 2 0.889843 1.7781 -0.893698 -6.86082
280 2 1.01577 1.04885 0.0354402 -7.01168
4202 1 -0.331587 0.741196 -0.913867 -4.01505
4203 2 -0.0130485 1.13371 1.02725 -7.09254
4241 1 -0.397542 -0.676179 -1.1465 -3.96536
4244 2 0.856426 -0.917696 0.0705789 -7.19712
4206 2 0.805517 2.7738 1.90662 -7.0197
4207 2 0.831472 1.81914 0.786158 -7.16738
4245 1 0.894556 0.263693 0.413169 -3.92844
4248 1 0.163504 0.54137 0.402255 -3.74453
4210 2 -1.10976 1.03511 4.15694 -6.86945
4211 1 -0.329536 0.916769 0.895819 -3.82402
4249 1 -0.192092 1.01626 0.721952 -3.836
4252 1 -0.465049 0.410707 0.513099 -3.78311
4214 1 0.885214 0.464787 0.776346 -4.01059
4215 1 -0.382476 0.761987 0.470732 -3.91688
4253 2 0.0257736 0.0335874 4.00862 -7.04722
4256 1 0.115343 -0.266863 -0.0895552 -3.78567
4218 2 -2.86881 1.08209 0.0340404 -6.8908
4219 1 0.280359 0.747772 0.23456 -3.88184
4257 1 -0.35696 -1.03428 1.3603 -4.02247
4260 1 -0.251394 0.492839 0.747671 -3.93452
4223 2 0.0927025 -0.142075 3.9227 -7.05114
4261 2 -0.122305 2.07902 -0.0720677 -6.71388
4222 2 0.989746 -1.96208 -1.03238 -6.69207
4227 2 0.122714 -1.0316 1.17465 -7.1018
4264 2 -0.793777 1.11482 4.07361 -6.85101
4265 2 2.0561 0.0151955 -1.97183 -6.71094
4226 1 -0.606713 -0.580326 -1.1238 -4.01664
4231 2 -0.385976 -0.126841 -0.347786 -6.91308
4268 2 -0.0940041 -0.0508417 1.95732 -7.03752
4269 2 -1.08897 -0.223958 -3.06402 -7.08509
4230 1 1.08695 -0.755037 -0.153143 -4.01899
4235 1 0.488202 -0.688643 -0.556923 -4.01055
4272 2 -0.189539 -0.934051 0.999255 -6.70804
4273 2 0.0178113 -1.20334 0.912037 -6.86251
4234 2 -0.929502 -1.16597 1.79694 -7.0157
4239 2 -0.810073 0.0702699 0.816387 -7.04332
4276 1 0.0819215 -0.200711 -0.481974 -4.09646
4277 1 -0.230531 0.661408 0.00645546 -4.0587
4238 2 0.889843 1.7781 -0.893698 -6.86082
4280 2 1.01577 1.04885 0.0354402 -7.01168
242 2 -0.186607 -1.4235 1.00237 -6.69056
243 2 -2.13387 -1.19063 -0.927512 -6.91635
281 1 -1.31566 0.116603 -0.280987 -4.05133
284 2 0.88491 -1.55751 0.396186 -6.52142
246 1 0.728753 -0.89766 0.939171 -3.87507
247 1 1.11794 -0.635289 -0.0446702 -3.97564
285 2 2.49332 -2.39205 2.13863 -6.48661
288 1 0.644222 -1.4085 0.150625 -3.9786
250 1 -1.07398 -0.150101 0.636154 -3.93448
251 1 -0.426445 -0.144396 -0.706076 -3.69696
289 1 0.556636 -0.80757 -0.25011 -3.79172
292 2 -0.910028 -0.0758267 -0.611618 -7.19079
254 2 1.97085 0.0305942 3.98071 -7.0137
255 1 0.278849 -0.764639 0.174303 -3.84387
293 2 -1.13473 1.03977 2.07951 -7.14144
296 1 -0.0674201 -0.212164 -0.437936 -4.01357
258 2 0.00918023 0.941615 1.14374 -7.2587
259 1 -0.289527 -0.23913 0.0653117 -3.8815
297 1 -0.117579 0.613513 0.523368 -4.01898
300 2 1.8026 -0.827294 -0.829276 -7.23035
263 1 0.170157 0.224917 1.26051 -3.84035
301 1 -0.382372 0.18048 -0.169076 -3.83734
262 2 -2.05005 2.21489 0.0246802 -7.06644
267 2 1.01856 1.87514 1.08528 -7.17409
304 1 -1.03347 0.200436 0.430988 -3.89224
305 1 0.966255 0.912164 0.874161 -4.02247
266 1 -0.023825 0.515682 -0.660832 -4.0061
271 2 -2.25097 -0.0708311 1.94998 -6.91143
308 1 -0.741247 -0.112436 -1.03822 -4.01599
309 2 -2.11381 0.997364 -1.08162 -7.03747
270 2 -0.0358133 0.036454 -2.3341 -6.47593
275 2 1.07028 1.10549 -0.184832 -6.92335
312 2 2.0945 -0.0685458 -0.0951645 -6.72209
313 1 0.252592 0.106946 -0.783539 -4.10087
274 1 0.301798 0.473448 0.109778 -4.0071
279 2 0.297397 -1.07068 -3.04704 -7.09624
316 2 0.134844 0.322193 -1.99557 -6.88739
317 1 0.456327 0.645875 -0.712718 -3.83437
278 1 0.148113 -0.200812 -0.981549 -3.87292
320 2 -1.11617 0.775536 -1.8533 -7.19052
4242 2 -0.186607 -1.4235 1.00237 -6.69056
4243 2 -2.13387 -1.19063 -0.927512 -6.91635
4281 1 -1.31566 0.116603 -0.280987 -4.05133
4284 2 0.88491 -1.55751 0.396186 -6.52142
4246 1 0.728753 -0.89766 0.939171 -3.87507
4247 1 1.11794 -0.635289 -0.0446702 -3.97564
4285 2 2.49332 -2.39205 2.13863 -6.48661
4288 1 0.644222 -1.4085 0.150625 -3.9786
4250 1 -1.07398 -0.150101 0.636154 -3.93448
4251 1 -0.426445 -0.144396 -0.706076 -3.69696
4289 1 0.556636 -0.80757 -0.25011 -3.79172
4292 2 -0.910028 -0.0758267 -0.611618 -7.19079
4254 2 1.97085 0.0305942 3.98071 -7.0137
4255 1 0.278849 -0.764639 0.174303 -3.84387
4293 2 -1.13473 1.03977 2.07951 -7.14144
4296 1 -0.0674201 -0.212164 -0.437936 -4.01357
4258 2 0.00918023 0.941615 1.14374 -7.2587
4259 1 -0.289527 -0.23913 0.0653117 -3.8815
4297 1 -0.117579 0.613513 0.523368 -4.01898
4300 2 1.8026 -0.827294 -0.829276 -7.23035
4263 1 0.170157 0.224917 1.26051 -3.84035
4301 1 -0.382372 0.18048 -0.169076 -3.83734
4262 2 -2.05005 2.21489 0.0246802 -7.06644
4267 2 1.01856 1.87514 1.08528 -7.17409
4304 1 -1.03347 0.200436 0.430988 -3.89224
4305 1 0.966255 0.912164 0.874161 -4.02247
4266 1 -0.023825 0.515682 -0.660832 -4.0061
4271 2 -2.25097 -0.0708311 1.94998 -6.91143
4308 1 -0.741247 -0.112436 -1.03822 -4.01599
4309 2 -2.11381 0.997364 -1.08162 -7.03747
4270 2 -0.0358133 0.036454 -2.3341 -6.47593
4275 2 1.07028 1.10549 -0.184832 -6.92335
4312 2 2.0945 -0.0685458 -0.0951645 -6.72209
4313 1 0.252592 0.106946 -0.783539 -4.10087
4274 1 0.301798 0.473448 0.109778 -4.0071
4279 2 0.297397 -1.07068 -3.04704 -7.09624
4316 2 0.134844 0.322193 -1.99557 -6.88739
4317 1 0.456327 0.645875 -0.712718 -3.83437
4278 1 0.148113 -0.200812 -0.981549 -3.87292
4320 2 -1.11617 0.775536 -1.8533 -7.19052
282 2 -1.25566 -1.29188 0.112194 -6.05204
283 2 -2.49172 -1.42102 -0.805753 -6.51899
321 2 -2.69808 -0.0204947 0.00259268 -6.51534
324 2 -0.0102103 1.19059 1.3175 -6.29015
286 2 3.51985 -0.00661886 1.27019 -6.88907
287 2 2.53499 -7.93338e-05 2.33983 -6.72065
325 2 2.63083 2.41326 0.024529 -6.51411
328 1 0.0164603 0.370521 -0.385366 -4.05431
290 1 -0.656693 0.983931 -0.391225 -3.7947
291 2 0.915355 0.0163054 -0.743468 -7.25616
329 1 0.301432 0.354334 -0.412884 -3.93146
332 1 0.976048 -1.07024 -0.898732 -3.87591
294 1 -0.553039 -0.00826799 0.570318 -3.96924
295 1 -0.573359 0.307021 -0.959674 -3.96968
333 1 -0.288536 -0.811178 0.174198 -3.97551
336 2 -1.88366 -0.893538 -0.936674 -6.8857
298 1 1.59008 -0.842194 -0.359633 -4.02546
299 2 -0.634253 -1.00029 -2.12006 -6.86427
337 2 -0.808862 -1.00868 -2.09081 -6.6569
340 2 2.73423 -0.173984 0.950173 -7.20144
303 1 0.570278 -0.0528664 0.199979 -3.78277
341 1 0.0911628 -0.270503 0.471253 -3.9258
302 2 -0.848319 -0.754232 1.57144 -7.28161
307 1 -0.382512 -1.24184 -0.432549 -3.87887
344 1 -0.896712 0.104256 0.760795 -3.92741
345 2 0.605893 -2.20362 1.00105 -7.04334
306 1 -1.14167 -0.190457 -0.558276 -3.96368
311 2 0.120839 -0.194499 -2.21807 -6.72352
348 2 -2.33561 -1.00902 -1.10054 -6.49172
349 2 0.154495 -1.97611 -2.18368 -7.08696
310 1 0.272657 0.0491457 0.090079 -4.10084
315 2 -0.728332 1.02257 -0.0395864 -7.08691
352 1 0.298439 -0.538697 -0.227039 -4.09614
353 2 0.0142322 -0.985847 0.828903 -6.69207
314 2 1.95269 -0.710825 -1.01952 -7.16515
319 1 0.344409 0.356655 -0.0844661 -4.02188
356 1 0.707238 -0.0729969 1.27921 -4.018
357 2 -0.0803464 -1.89098 -1.86061 -7.1607
318 1 -1.08265 -0.601335 -0.947755 -3.91977
360 2 -1.29634 -1.98368 1.0499 -6.88401
4282 2 -1.25566 -1.29188 0.112194 -6.05204
4283 2 -2.49172 -1.42102 -0.805753 -6.51899
4321 2 -2.69808 -0.0204947 0.00259268 -6.51534
4324 2 -0.0102103 1.19059 1.3175 -6.29015
4286 2 3.51985 -0.00661886 1.27019 -6.88907
4287 2 2.53499 -7.93338e-05 2.33983 -6.72065
4325 2 2.63083 2.41326 0.024529 -6.51411
4328 1 0.0164603 0.370521 -0.385366 -4.05431
4290 1 -0.656693 0.983931 -0.391225 -3.7947
4291 2 0.915355 0.0163054 -0.743468 -7.25616
4329 1 0.301432 0.354334 -0.412884 -3.93146
4332 1 0.976048 -1.07024 -0.898732 -3.87591
4294 1 -0.553039 -0.00826799 0.570318 -3.96924
4295 1 -0.573359 0.307021 -0.959674 -3.96968
4333 1 -0.288536 -0.811178 0.174198 -3.97551
4336 2 -1.88366 -0.893538 -0.936674 -6.8857
4298 1 1.59008 -0.842194 -0.359633 -4.02546
4299 2 -0.634253 -1.00029 -2.12006 -6.86427
4337 2 -0.808862 -1.00868 -2.09081 -6.6569
4340 2 2.73423 -0.173984 0.950173 -7.20144
4303 1 0.570278 -0.0528664 0.199979 -3.78277
4341 1 0.0911628 -0.270503 0.471253 -3.9258
4302 2 -0.848319 -0.754232 1.57144 -7.28161
4307 1 -0.382512 -1.24184 -0.432549 -3.87887
4344 1 -0.896712 0.104256 0.760795 -3.92741
4345 2 0.605893 -2.20362 1.00105 -7.04334
4306 1 -1.14167 -0.190457 -0.558276 -3.96368
4311 2 0.120839 -0.194499 -2.21807 -6.72352
4348 2 -2.33561 -1.00902 -1.10054 -6.49172
4349 2 0.154495 -1.97611 -2.18368 -7.08696
4310 1 0.272657 0.0491457 0.090079 -4.10084
4315 2 -0.728332 1.02257 -0.0395864 -7.08691
4352 1 0.298439 -0.538697 -0.227039 -4.09614
4353 2 0.0142322 -0.985847 0.828903 -6.69207
4314 2 1.95269 -0.710825 -1.01952 -7.16515
4319 1 0.344409 0.356655 -0.0844661 -4.02188
4356 1 0.707238 -0.0729969 1.27921 -4.018
4357 2 -0.0803464 -1.89098 -1.86061 -7.1607
4318 1 -1.08265 -0.601335 -0.947755 -3.91977
4360 2 -1.29634 -1.98368 1.0499 -6.88401
322 2 -0.930289 1.66584 0.137847 -6.53181
323 1 -0.613622 1.10672 0.123919 -4.13554
361 1 -0.353182 -0.169372 1.13562 -4.08899
364 2 -2.95506 1.27216 -0.133309 -6.88402
326 1 0.672112 -0.0710252 -0.18306 -3.97259
327 2 3.46691 -0.828616 0.0778815 -6.70366
365 2 4.01387 1.22344 -0.866535 -7.19492
368 1 0.305184 0.894861 -0.528864 -3.87569
330 2 0.0206367 -1.42603 0.0691961 -7.26386
331 2 -0.814379 -0.0688231 -1.13376 -7.13458
369 2 -1.58482 -0.0555705 -0.0580298 -7.23299
372 1 -0.405411 -0.114711 0.466201 -4.01071
334 2 -0.263792 0.0534671 -2.093 -7.06831
335 1 -0.992003 -0.336481 -0.838384 -4.10382
373 2 -1.49749 -0.407435 -1.31177 -6.86601
376 2 1.21343 -1.25756 -0.122789 -6.50438